 TITLE = "Concentrations (log mol/kgw)" 
VARIABLES = "X"          "Y"              "Z"            "Tracer"         "Na+"            "Cl-"           
 ZONE I=         100 , J=           1 , K=           1  F=POINT
   5.00000000E-01   5.00000000E-01   5.00000000E-01  -9.99999986E-01  -1.99999997E+00  -1.99999997E+00
   1.50000000E+00   5.00000000E-01   5.00000000E-01  -9.99999986E-01  -1.99999997E+00  -1.99999997E+00
   2.50000000E+00   5.00000000E-01   5.00000000E-01  -9.99999986E-01  -1.99999997E+00  -1.99999997E+00
   3.50000000E+00   5.00000000E-01   5.00000000E-01  -9.99999986E-01  -1.99999997E+00  -1.99999997E+00
   4.50000000E+00   5.00000000E-01   5.00000000E-01  -9.99999986E-01  -1.99999997E+00  -1.99999997E+00
   5.50000000E+00   5.00000000E-01   5.00000000E-01  -9.99999986E-01  -1.99999997E+00  -1.99999997E+00
   6.50000000E+00   5.00000000E-01   5.00000000E-01  -9.99999986E-01  -1.99999997E+00  -1.99999997E+00
   7.50000000E+00   5.00000000E-01   5.00000000E-01  -9.99999986E-01  -1.99999997E+00  -1.99999997E+00
   8.50000000E+00   5.00000000E-01   5.00000000E-01  -9.99999986E-01  -1.99999997E+00  -1.99999997E+00
   9.50000000E+00   5.00000000E-01   5.00000000E-01  -9.99999986E-01  -1.99999997E+00  -1.99999997E+00
   1.05000000E+01   5.00000000E-01   5.00000000E-01  -9.99999986E-01  -1.99999997E+00  -1.99999997E+00
   1.15000000E+01   5.00000000E-01   5.00000000E-01  -9.99999986E-01  -1.99999997E+00  -1.99999997E+00
   1.25000000E+01   5.00000000E-01   5.00000000E-01  -9.99999986E-01  -1.99999997E+00  -1.99999997E+00
   1.35000000E+01   5.00000000E-01   5.00000000E-01  -9.99999986E-01  -1.99999997E+00  -1.99999997E+00
   1.45000000E+01   5.00000000E-01   5.00000000E-01  -9.99999986E-01  -1.99999997E+00  -1.99999997E+00
   1.55000000E+01   5.00000000E-01   5.00000000E-01  -9.99999986E-01  -1.99999997E+00  -1.99999997E+00
   1.65000000E+01   5.00000000E-01   5.00000000E-01  -9.99999986E-01  -1.99999997E+00  -1.99999997E+00
   1.75000000E+01   5.00000000E-01   5.00000000E-01  -9.99999986E-01  -1.99999997E+00  -1.99999997E+00
   1.85000000E+01   5.00000000E-01   5.00000000E-01  -9.99999986E-01  -1.99999997E+00  -1.99999997E+00
   1.95000000E+01   5.00000000E-01   5.00000000E-01  -9.99999986E-01  -1.99999997E+00  -1.99999997E+00
   2.05000000E+01   5.00000000E-01   5.00000000E-01  -9.99999986E-01  -1.99999997E+00  -1.99999997E+00
   2.15000000E+01   5.00000000E-01   5.00000000E-01  -9.99999986E-01  -1.99999997E+00  -1.99999997E+00
   2.25000000E+01   5.00000000E-01   5.00000000E-01  -9.99999986E-01  -1.99999997E+00  -1.99999997E+00
   2.35000000E+01   5.00000000E-01   5.00000000E-01  -9.99999986E-01  -1.99999997E+00  -1.99999997E+00
   2.45000000E+01   5.00000000E-01   5.00000000E-01  -9.99999986E-01  -1.99999997E+00  -1.99999997E+00
   2.55000000E+01   5.00000000E-01   5.00000000E-01  -9.99999986E-01  -1.99999997E+00  -1.99999997E+00
   2.65000000E+01   5.00000000E-01   5.00000000E-01  -9.99999986E-01  -1.99999997E+00  -1.99999997E+00
   2.75000000E+01   5.00000000E-01   5.00000000E-01  -9.99999986E-01  -1.99999997E+00  -1.99999997E+00
   2.85000000E+01   5.00000000E-01   5.00000000E-01  -9.99999986E-01  -1.99999997E+00  -1.99999997E+00
   2.95000000E+01   5.00000000E-01   5.00000000E-01  -9.99999986E-01  -1.99999997E+00  -1.99999997E+00
   3.05000000E+01   5.00000000E-01   5.00000000E-01  -9.99999986E-01  -1.99999997E+00  -1.99999997E+00
   3.15000000E+01   5.00000000E-01   5.00000000E-01  -9.99999986E-01  -1.99999997E+00  -1.99999997E+00
   3.25000000E+01   5.00000000E-01   5.00000000E-01  -9.99999986E-01  -1.99999997E+00  -1.99999997E+00
   3.35000000E+01   5.00000000E-01   5.00000000E-01  -9.99999986E-01  -1.99999997E+00  -1.99999997E+00
   3.45000000E+01   5.00000000E-01   5.00000000E-01  -9.99999986E-01  -1.99999997E+00  -1.99999997E+00
   3.55000000E+01   5.00000000E-01   5.00000000E-01  -9.99999986E-01  -1.99999997E+00  -1.99999997E+00
   3.65000000E+01   5.00000000E-01   5.00000000E-01  -9.99999986E-01  -1.99999997E+00  -1.99999997E+00
   3.75000000E+01   5.00000000E-01   5.00000000E-01  -9.99999986E-01  -1.99999997E+00  -1.99999997E+00
   3.85000000E+01   5.00000000E-01   5.00000000E-01  -9.99999986E-01  -1.99999997E+00  -1.99999997E+00
   3.95000000E+01   5.00000000E-01   5.00000000E-01  -9.99999986E-01  -1.99999997E+00  -1.99999997E+00
   4.05000000E+01   5.00000000E-01   5.00000000E-01  -9.99999986E-01  -1.99999997E+00  -1.99999997E+00
   4.15000000E+01   5.00000000E-01   5.00000000E-01  -9.99999986E-01  -1.99999997E+00  -1.99999997E+00
   4.25000000E+01   5.00000000E-01   5.00000000E-01  -9.99999986E-01  -1.99999997E+00  -1.99999997E+00
   4.35000000E+01   5.00000000E-01   5.00000000E-01  -9.99999986E-01  -1.99999997E+00  -1.99999997E+00
   4.45000000E+01   5.00000000E-01   5.00000000E-01  -9.99999986E-01  -1.99999997E+00  -1.99999997E+00
   4.55000000E+01   5.00000000E-01   5.00000000E-01  -9.99999986E-01  -1.99999997E+00  -1.99999997E+00
   4.65000000E+01   5.00000000E-01   5.00000000E-01  -9.99999987E-01  -1.99999997E+00  -1.99999997E+00
   4.75000000E+01   5.00000000E-01   5.00000000E-01  -9.99999987E-01  -1.99999997E+00  -1.99999997E+00
   4.85000000E+01   5.00000000E-01   5.00000000E-01  -9.99999989E-01  -1.99999997E+00  -1.99999997E+00
   4.95000000E+01   5.00000000E-01   5.00000000E-01  -9.99999992E-01  -1.99999997E+00  -1.99999997E+00
   5.05000000E+01   5.00000000E-01   5.00000000E-01  -9.99999998E-01  -1.99999997E+00  -1.99999997E+00
   5.15000000E+01   5.00000000E-01   5.00000000E-01  -1.00000001E+00  -1.99999997E+00  -1.99999997E+00
   5.25000000E+01   5.00000000E-01   5.00000000E-01  -1.00000003E+00  -1.99999997E+00  -1.99999997E+00
   5.35000000E+01   5.00000000E-01   5.00000000E-01  -1.00000007E+00  -1.99999997E+00  -1.99999997E+00
   5.45000000E+01   5.00000000E-01   5.00000000E-01  -1.00000015E+00  -1.99999997E+00  -1.99999997E+00
   5.55000000E+01   5.00000000E-01   5.00000000E-01  -1.00000029E+00  -1.99999997E+00  -1.99999997E+00
   5.65000000E+01   5.00000000E-01   5.00000000E-01  -1.00000054E+00  -1.99999997E+00  -1.99999997E+00
   5.75000000E+01   5.00000000E-01   5.00000000E-01  -1.00000098E+00  -1.99999997E+00  -1.99999997E+00
   5.85000000E+01   5.00000000E-01   5.00000000E-01  -1.00000173E+00  -1.99999997E+00  -1.99999997E+00
   5.95000000E+01   5.00000000E-01   5.00000000E-01  -1.00000300E+00  -1.99999997E+00  -1.99999997E+00
   6.05000000E+01   5.00000000E-01   5.00000000E-01  -1.00000510E+00  -1.99999997E+00  -1.99999997E+00
   6.15000000E+01   5.00000000E-01   5.00000000E-01  -1.00000853E+00  -1.99999997E+00  -1.99999997E+00
   6.25000000E+01   5.00000000E-01   5.00000000E-01  -1.00001403E+00  -1.99999997E+00  -1.99999997E+00
   6.35000000E+01   5.00000000E-01   5.00000000E-01  -1.00002274E+00  -1.99999997E+00  -1.99999997E+00
   6.45000000E+01   5.00000000E-01   5.00000000E-01  -1.00003630E+00  -1.99999997E+00  -1.99999997E+00
   6.55000000E+01   5.00000000E-01   5.00000000E-01  -1.00005709E+00  -1.99999997E+00  -1.99999997E+00
   6.65000000E+01   5.00000000E-01   5.00000000E-01  -1.00008846E+00  -1.99999997E+00  -1.99999997E+00
   6.75000000E+01   5.00000000E-01   5.00000000E-01  -1.00013514E+00  -1.99999997E+00  -1.99999997E+00
   6.85000000E+01   5.00000000E-01   5.00000000E-01  -1.00020355E+00  -1.99999997E+00  -1.99999997E+00
   6.95000000E+01   5.00000000E-01   5.00000000E-01  -1.00030240E+00  -1.99999997E+00  -1.99999997E+00
   7.05000000E+01   5.00000000E-01   5.00000000E-01  -1.00044320E+00  -1.99999997E+00  -1.99999997E+00
   7.15000000E+01   5.00000000E-01   5.00000000E-01  -1.00064098E+00  -1.99999997E+00  -1.99999997E+00
   7.25000000E+01   5.00000000E-01   5.00000000E-01  -1.00091502E+00  -1.99999997E+00  -1.99999997E+00
   7.35000000E+01   5.00000000E-01   5.00000000E-01  -1.00128962E+00  -1.99999997E+00  -1.99999997E+00
   7.45000000E+01   5.00000000E-01   5.00000000E-01  -1.00179495E+00  -1.99999997E+00  -1.99999997E+00
   7.55000000E+01   5.00000000E-01   5.00000000E-01  -1.00246785E+00  -1.99999997E+00  -1.99999997E+00
   7.65000000E+01   5.00000000E-01   5.00000000E-01  -1.00335259E+00  -1.99999997E+00  -1.99999997E+00
   7.75000000E+01   5.00000000E-01   5.00000000E-01  -1.00450147E+00  -1.99999997E+00  -1.99999997E+00
   7.85000000E+01   5.00000000E-01   5.00000000E-01  -1.00597541E+00  -1.99999997E+00  -1.99999997E+00
   7.95000000E+01   5.00000000E-01   5.00000000E-01  -1.00784415E+00  -1.99999997E+00  -1.99999997E+00
   8.05000000E+01   5.00000000E-01   5.00000000E-01  -1.01018644E+00  -1.99999997E+00  -1.99999997E+00
   8.15000000E+01   5.00000000E-01   5.00000000E-01  -1.01308975E+00  -1.99999997E+00  -1.99999997E+00
   8.25000000E+01   5.00000000E-01   5.00000000E-01  -1.01664996E+00  -1.99999997E+00  -1.99999997E+00
   8.35000000E+01   5.00000000E-01   5.00000000E-01  -1.02097055E+00  -1.99999997E+00  -1.99999997E+00
   8.45000000E+01   5.00000000E-01   5.00000000E-01  -1.02616178E+00  -1.99999997E+00  -1.99999997E+00
   8.55000000E+01   5.00000000E-01   5.00000000E-01  -1.03233955E+00  -1.99999997E+00  -1.99999997E+00
   8.65000000E+01   5.00000000E-01   5.00000000E-01  -1.03962410E+00  -1.99999997E+00  -1.99999997E+00
   8.75000000E+01   5.00000000E-01   5.00000000E-01  -1.04813873E+00  -1.99999997E+00  -1.99999997E+00
   8.85000000E+01   5.00000000E-01   5.00000000E-01  -1.05800839E+00  -1.99999997E+00  -1.99999997E+00
   8.95000000E+01   5.00000000E-01   5.00000000E-01  -1.06935830E+00  -1.99999997E+00  -1.99999997E+00
   9.05000000E+01   5.00000000E-01   5.00000000E-01  -1.08231264E+00  -1.99999997E+00  -1.99999997E+00
   9.15000000E+01   5.00000000E-01   5.00000000E-01  -1.09699340E+00  -1.99999997E+00  -1.99999997E+00
   9.25000000E+01   5.00000000E-01   5.00000000E-01  -1.11351927E+00  -1.99999997E+00  -1.99999997E+00
   9.35000000E+01   5.00000000E-01   5.00000000E-01  -1.13200473E+00  -1.99999997E+00  -1.99999997E+00
   9.45000000E+01   5.00000000E-01   5.00000000E-01  -1.15255930E+00  -1.99999997E+00  -1.99999997E+00
   9.55000000E+01   5.00000000E-01   5.00000000E-01  -1.17528697E+00  -1.99999997E+00  -1.99999997E+00
   9.65000000E+01   5.00000000E-01   5.00000000E-01  -1.20028571E+00  -1.99999997E+00  -1.99999997E+00
   9.75000000E+01   5.00000000E-01   5.00000000E-01  -1.22764725E+00  -1.99999997E+00  -1.99999997E+00
   9.85000000E+01   5.00000000E-01   5.00000000E-01  -1.25745686E+00  -1.99999997E+00  -1.99999997E+00
   9.95000000E+01   5.00000000E-01   5.00000000E-01  -1.28979001E+00  -1.99999997E+00  -1.99999997E+00
