 TITLE = "Total Concentrations (mol/kgw)" 
VARIABLES = "X"          "Y"              "Z"            "Tracer"         "Na+"            "Cl-"           
 ZONE I=         100 , J=           1 , K=           1  F=POINT
   5.00000000E-01   5.00000000E-01   5.00000000E-01   1.00000000E-01   1.00000000E-02   1.00000000E-02
   1.50000000E+00   5.00000000E-01   5.00000000E-01   1.00000000E-01   1.00000000E-02   1.00000000E-02
   2.50000000E+00   5.00000000E-01   5.00000000E-01   1.00000000E-01   1.00000000E-02   1.00000000E-02
   3.50000000E+00   5.00000000E-01   5.00000000E-01   1.00000000E-01   1.00000000E-02   1.00000000E-02
   4.50000000E+00   5.00000000E-01   5.00000000E-01   1.00000000E-01   1.00000000E-02   1.00000000E-02
   5.50000000E+00   5.00000000E-01   5.00000000E-01   1.00000000E-01   1.00000000E-02   1.00000000E-02
   6.50000000E+00   5.00000000E-01   5.00000000E-01   1.00000000E-01   1.00000000E-02   1.00000000E-02
   7.50000000E+00   5.00000000E-01   5.00000000E-01   1.00000000E-01   1.00000000E-02   1.00000000E-02
   8.50000000E+00   5.00000000E-01   5.00000000E-01   1.00000000E-01   1.00000000E-02   1.00000000E-02
   9.50000000E+00   5.00000000E-01   5.00000000E-01   1.00000000E-01   1.00000000E-02   1.00000000E-02
   1.05000000E+01   5.00000000E-01   5.00000000E-01   1.00000000E-01   1.00000000E-02   1.00000000E-02
   1.15000000E+01   5.00000000E-01   5.00000000E-01   1.00000000E-01   1.00000000E-02   1.00000000E-02
   1.25000000E+01   5.00000000E-01   5.00000000E-01   1.00000000E-01   1.00000000E-02   1.00000000E-02
   1.35000000E+01   5.00000000E-01   5.00000000E-01   1.00000000E-01   1.00000000E-02   1.00000000E-02
   1.45000000E+01   5.00000000E-01   5.00000000E-01   1.00000000E-01   1.00000000E-02   1.00000000E-02
   1.55000000E+01   5.00000000E-01   5.00000000E-01   1.00000000E-01   1.00000000E-02   1.00000000E-02
   1.65000000E+01   5.00000000E-01   5.00000000E-01   1.00000000E-01   1.00000000E-02   1.00000000E-02
   1.75000000E+01   5.00000000E-01   5.00000000E-01   1.00000000E-01   1.00000000E-02   1.00000000E-02
   1.85000000E+01   5.00000000E-01   5.00000000E-01   1.00000000E-01   1.00000000E-02   1.00000000E-02
   1.95000000E+01   5.00000000E-01   5.00000000E-01   1.00000000E-01   1.00000000E-02   1.00000000E-02
   2.05000000E+01   5.00000000E-01   5.00000000E-01   1.00000000E-01   1.00000000E-02   1.00000000E-02
   2.15000000E+01   5.00000000E-01   5.00000000E-01   1.00000000E-01   1.00000000E-02   1.00000000E-02
   2.25000000E+01   5.00000000E-01   5.00000000E-01   1.00000000E-01   1.00000000E-02   1.00000000E-02
   2.35000000E+01   5.00000000E-01   5.00000000E-01   1.00000000E-01   1.00000000E-02   1.00000000E-02
   2.45000000E+01   5.00000000E-01   5.00000000E-01   1.00000000E-01   1.00000000E-02   1.00000000E-02
   2.55000000E+01   5.00000000E-01   5.00000000E-01   1.00000000E-01   1.00000000E-02   1.00000000E-02
   2.65000000E+01   5.00000000E-01   5.00000000E-01   1.00000000E-01   1.00000000E-02   1.00000000E-02
   2.75000000E+01   5.00000000E-01   5.00000000E-01   1.00000000E-01   1.00000000E-02   1.00000000E-02
   2.85000000E+01   5.00000000E-01   5.00000000E-01   1.00000000E-01   1.00000000E-02   1.00000000E-02
   2.95000000E+01   5.00000000E-01   5.00000000E-01   1.00000000E-01   1.00000000E-02   1.00000000E-02
   3.05000000E+01   5.00000000E-01   5.00000000E-01   1.00000000E-01   1.00000000E-02   1.00000000E-02
   3.15000000E+01   5.00000000E-01   5.00000000E-01   1.00000000E-01   1.00000000E-02   1.00000000E-02
   3.25000000E+01   5.00000000E-01   5.00000000E-01   1.00000000E-01   1.00000000E-02   1.00000000E-02
   3.35000000E+01   5.00000000E-01   5.00000000E-01   1.00000000E-01   1.00000000E-02   1.00000000E-02
   3.45000000E+01   5.00000000E-01   5.00000000E-01   1.00000000E-01   1.00000000E-02   1.00000000E-02
   3.55000000E+01   5.00000000E-01   5.00000000E-01   1.00000000E-01   1.00000000E-02   1.00000000E-02
   3.65000000E+01   5.00000000E-01   5.00000000E-01   1.00000000E-01   1.00000000E-02   1.00000000E-02
   3.75000000E+01   5.00000000E-01   5.00000000E-01   1.00000000E-01   1.00000000E-02   1.00000000E-02
   3.85000000E+01   5.00000000E-01   5.00000000E-01   1.00000000E-01   1.00000000E-02   1.00000000E-02
   3.95000000E+01   5.00000000E-01   5.00000000E-01   1.00000000E-01   1.00000000E-02   1.00000000E-02
   4.05000000E+01   5.00000000E-01   5.00000000E-01   1.00000000E-01   1.00000000E-02   1.00000000E-02
   4.15000000E+01   5.00000000E-01   5.00000000E-01   1.00000000E-01   1.00000000E-02   1.00000000E-02
   4.25000000E+01   5.00000000E-01   5.00000000E-01   1.00000000E-01   1.00000000E-02   1.00000000E-02
   4.35000000E+01   5.00000000E-01   5.00000000E-01   1.00000000E-01   1.00000000E-02   1.00000000E-02
   4.45000000E+01   5.00000000E-01   5.00000000E-01   1.00000000E-01   1.00000000E-02   1.00000000E-02
   4.55000000E+01   5.00000000E-01   5.00000000E-01   9.99999999E-02   1.00000000E-02   1.00000000E-02
   4.65000000E+01   5.00000000E-01   5.00000000E-01   9.99999999E-02   1.00000000E-02   1.00000000E-02
   4.75000000E+01   5.00000000E-01   5.00000000E-01   9.99999997E-02   1.00000000E-02   1.00000000E-02
   4.85000000E+01   5.00000000E-01   5.00000000E-01   9.99999993E-02   1.00000000E-02   1.00000000E-02
   4.95000000E+01   5.00000000E-01   5.00000000E-01   9.99999986E-02   1.00000000E-02   1.00000000E-02
   5.05000000E+01   5.00000000E-01   5.00000000E-01   9.99999973E-02   1.00000000E-02   1.00000000E-02
   5.15000000E+01   5.00000000E-01   5.00000000E-01   9.99999946E-02   1.00000000E-02   1.00000000E-02
   5.25000000E+01   5.00000000E-01   5.00000000E-01   9.99999894E-02   1.00000000E-02   1.00000000E-02
   5.35000000E+01   5.00000000E-01   5.00000000E-01   9.99999797E-02   1.00000000E-02   1.00000000E-02
   5.45000000E+01   5.00000000E-01   5.00000000E-01   9.99999617E-02   1.00000000E-02   1.00000000E-02
   5.55000000E+01   5.00000000E-01   5.00000000E-01   9.99999293E-02   1.00000000E-02   1.00000000E-02
   5.65000000E+01   5.00000000E-01   5.00000000E-01   9.99998717E-02   1.00000000E-02   1.00000000E-02
   5.75000000E+01   5.00000000E-01   5.00000000E-01   9.99997711E-02   1.00000000E-02   1.00000000E-02
   5.85000000E+01   5.00000000E-01   5.00000000E-01   9.99995984E-02   1.00000000E-02   1.00000000E-02
   5.95000000E+01   5.00000000E-01   5.00000000E-01   9.99993070E-02   1.00000000E-02   1.00000000E-02
   6.05000000E+01   5.00000000E-01   5.00000000E-01   9.99988234E-02   1.00000000E-02   1.00000000E-02
   6.15000000E+01   5.00000000E-01   5.00000000E-01   9.99980338E-02   1.00000000E-02   1.00000000E-02
   6.25000000E+01   5.00000000E-01   5.00000000E-01   9.99967654E-02   1.00000000E-02   1.00000000E-02
   6.35000000E+01   5.00000000E-01   5.00000000E-01   9.99947599E-02   1.00000000E-02   1.00000000E-02
   6.45000000E+01   5.00000000E-01   5.00000000E-01   9.99916382E-02   1.00000000E-02   1.00000000E-02
   6.55000000E+01   5.00000000E-01   5.00000000E-01   9.99868533E-02   1.00000000E-02   1.00000000E-02
   6.65000000E+01   5.00000000E-01   5.00000000E-01   9.99796295E-02   1.00000000E-02   1.00000000E-02
   6.75000000E+01   5.00000000E-01   5.00000000E-01   9.99688853E-02   1.00000000E-02   1.00000000E-02
   6.85000000E+01   5.00000000E-01   5.00000000E-01   9.99531382E-02   1.00000000E-02   1.00000000E-02
   6.95000000E+01   5.00000000E-01   5.00000000E-01   9.99303910E-02   1.00000000E-02   1.00000000E-02
   7.05000000E+01   5.00000000E-01   5.00000000E-01   9.98979980E-02   1.00000000E-02   1.00000000E-02
   7.15000000E+01   5.00000000E-01   5.00000000E-01   9.98525137E-02   1.00000000E-02   1.00000000E-02
   7.25000000E+01   5.00000000E-01   5.00000000E-01   9.97895280E-02   1.00000000E-02   1.00000000E-02
   7.35000000E+01   5.00000000E-01   5.00000000E-01   9.97034924E-02   1.00000000E-02   1.00000000E-02
   7.45000000E+01   5.00000000E-01   5.00000000E-01   9.95875479E-02   1.00000000E-02   1.00000000E-02
   7.55000000E+01   5.00000000E-01   5.00000000E-01   9.94333645E-02   1.00000000E-02   1.00000000E-02
   7.65000000E+01   5.00000000E-01   5.00000000E-01   9.92310075E-02   1.00000000E-02   1.00000000E-02
   7.75000000E+01   5.00000000E-01   5.00000000E-01   9.89688476E-02   1.00000000E-02   1.00000000E-02
   7.85000000E+01   5.00000000E-01   5.00000000E-01   9.86335307E-02   1.00000000E-02   1.00000000E-02
   7.95000000E+01   5.00000000E-01   5.00000000E-01   9.82100274E-02   1.00000000E-02   1.00000000E-02
   8.05000000E+01   5.00000000E-01   5.00000000E-01   9.76817767E-02   1.00000000E-02   1.00000000E-02
   8.15000000E+01   5.00000000E-01   5.00000000E-01   9.70309386E-02   1.00000000E-02   1.00000000E-02
   8.25000000E+01   5.00000000E-01   5.00000000E-01   9.62387627E-02   1.00000000E-02   1.00000000E-02
   8.35000000E+01   5.00000000E-01   5.00000000E-01   9.52860749E-02   1.00000000E-02   1.00000000E-02
   8.45000000E+01   5.00000000E-01   5.00000000E-01   9.41538757E-02   1.00000000E-02   1.00000000E-02
   8.55000000E+01   5.00000000E-01   5.00000000E-01   9.28240341E-02   1.00000000E-02   1.00000000E-02
   8.65000000E+01   5.00000000E-01   5.00000000E-01   9.12800536E-02   1.00000000E-02   1.00000000E-02
   8.75000000E+01   5.00000000E-01   5.00000000E-01   8.95078759E-02   1.00000000E-02   1.00000000E-02
   8.85000000E+01   5.00000000E-01   5.00000000E-01   8.74966836E-02   1.00000000E-02   1.00000000E-02
   8.95000000E+01   5.00000000E-01   5.00000000E-01   8.52396563E-02   1.00000000E-02   1.00000000E-02
   9.05000000E+01   5.00000000E-01   5.00000000E-01   8.27346332E-02   1.00000000E-02   1.00000000E-02
   9.15000000E+01   5.00000000E-01   5.00000000E-01   7.99846379E-02   1.00000000E-02   1.00000000E-02
   9.25000000E+01   5.00000000E-01   5.00000000E-01   7.69982251E-02   1.00000000E-02   1.00000000E-02
   9.35000000E+01   5.00000000E-01   5.00000000E-01   7.37896169E-02   1.00000000E-02   1.00000000E-02
   9.45000000E+01   5.00000000E-01   5.00000000E-01   7.03786094E-02   1.00000000E-02   1.00000000E-02
   9.55000000E+01   5.00000000E-01   5.00000000E-01   6.67902418E-02   1.00000000E-02   1.00000000E-02
   9.65000000E+01   5.00000000E-01   5.00000000E-01   6.30542362E-02   1.00000000E-02   1.00000000E-02
   9.75000000E+01   5.00000000E-01   5.00000000E-01   5.92042289E-02   1.00000000E-02   1.00000000E-02
   9.85000000E+01   5.00000000E-01   5.00000000E-01   5.52768287E-02   1.00000000E-02   1.00000000E-02
   9.95000000E+01   5.00000000E-01   5.00000000E-01   5.13109400E-02   1.00000000E-02   1.00000000E-02
