 TITLE = "Temperature (C)" 
 VARIABLES = "X"          "Y"              "Z"     "Wcres" 
 ZONE I=         100 , J=           1 , K=           1  F=POINT
   5.00000000E-01   5.00000000E-01   5.00000000E-01   2.50000000E+01
   1.50000000E+00   5.00000000E-01   5.00000000E-01   2.50000000E+01
   2.50000000E+00   5.00000000E-01   5.00000000E-01   2.50000000E+01
   3.50000000E+00   5.00000000E-01   5.00000000E-01   2.50000000E+01
   4.50000000E+00   5.00000000E-01   5.00000000E-01   2.50000000E+01
   5.50000000E+00   5.00000000E-01   5.00000000E-01   2.50000000E+01
   6.50000000E+00   5.00000000E-01   5.00000000E-01   2.50000000E+01
   7.50000000E+00   5.00000000E-01   5.00000000E-01   2.50000000E+01
   8.50000000E+00   5.00000000E-01   5.00000000E-01   2.50000000E+01
   9.50000000E+00   5.00000000E-01   5.00000000E-01   2.50000000E+01
   1.05000000E+01   5.00000000E-01   5.00000000E-01   2.50000000E+01
   1.15000000E+01   5.00000000E-01   5.00000000E-01   2.50000000E+01
   1.25000000E+01   5.00000000E-01   5.00000000E-01   2.50000000E+01
   1.35000000E+01   5.00000000E-01   5.00000000E-01   2.50000000E+01
   1.45000000E+01   5.00000000E-01   5.00000000E-01   2.50000000E+01
   1.55000000E+01   5.00000000E-01   5.00000000E-01   2.50000000E+01
   1.65000000E+01   5.00000000E-01   5.00000000E-01   2.50000000E+01
   1.75000000E+01   5.00000000E-01   5.00000000E-01   2.50000000E+01
   1.85000000E+01   5.00000000E-01   5.00000000E-01   2.50000000E+01
   1.95000000E+01   5.00000000E-01   5.00000000E-01   2.50000000E+01
   2.05000000E+01   5.00000000E-01   5.00000000E-01   2.50000000E+01
   2.15000000E+01   5.00000000E-01   5.00000000E-01   2.50000000E+01
   2.25000000E+01   5.00000000E-01   5.00000000E-01   2.50000000E+01
   2.35000000E+01   5.00000000E-01   5.00000000E-01   2.50000000E+01
   2.45000000E+01   5.00000000E-01   5.00000000E-01   2.50000000E+01
   2.55000000E+01   5.00000000E-01   5.00000000E-01   2.50000000E+01
   2.65000000E+01   5.00000000E-01   5.00000000E-01   2.50000000E+01
   2.75000000E+01   5.00000000E-01   5.00000000E-01   2.50000000E+01
   2.85000000E+01   5.00000000E-01   5.00000000E-01   2.50000000E+01
   2.95000000E+01   5.00000000E-01   5.00000000E-01   2.50000000E+01
   3.05000000E+01   5.00000000E-01   5.00000000E-01   2.50000000E+01
   3.15000000E+01   5.00000000E-01   5.00000000E-01   2.50000000E+01
   3.25000000E+01   5.00000000E-01   5.00000000E-01   2.50000000E+01
   3.35000000E+01   5.00000000E-01   5.00000000E-01   2.50000000E+01
   3.45000000E+01   5.00000000E-01   5.00000000E-01   2.50000000E+01
   3.55000000E+01   5.00000000E-01   5.00000000E-01   2.50000000E+01
   3.65000000E+01   5.00000000E-01   5.00000000E-01   2.50000000E+01
   3.75000000E+01   5.00000000E-01   5.00000000E-01   2.50000000E+01
   3.85000000E+01   5.00000000E-01   5.00000000E-01   2.50000000E+01
   3.95000000E+01   5.00000000E-01   5.00000000E-01   2.50000000E+01
   4.05000000E+01   5.00000000E-01   5.00000000E-01   2.50000000E+01
   4.15000000E+01   5.00000000E-01   5.00000000E-01   2.50000000E+01
   4.25000000E+01   5.00000000E-01   5.00000000E-01   2.50000000E+01
   4.35000000E+01   5.00000000E-01   5.00000000E-01   2.50000000E+01
   4.45000000E+01   5.00000000E-01   5.00000000E-01   2.50000000E+01
   4.55000000E+01   5.00000000E-01   5.00000000E-01   2.50000000E+01
   4.65000000E+01   5.00000000E-01   5.00000000E-01   2.50000000E+01
   4.75000000E+01   5.00000000E-01   5.00000000E-01   2.50000000E+01
   4.85000000E+01   5.00000000E-01   5.00000000E-01   2.50000000E+01
   4.95000000E+01   5.00000000E-01   5.00000000E-01   2.50000000E+01
   5.05000000E+01   5.00000000E-01   5.00000000E-01   2.50000000E+01
   5.15000000E+01   5.00000000E-01   5.00000000E-01   2.50000000E+01
   5.25000000E+01   5.00000000E-01   5.00000000E-01   2.50000000E+01
   5.35000000E+01   5.00000000E-01   5.00000000E-01   2.50000000E+01
   5.45000000E+01   5.00000000E-01   5.00000000E-01   2.50000000E+01
   5.55000000E+01   5.00000000E-01   5.00000000E-01   2.50000000E+01
   5.65000000E+01   5.00000000E-01   5.00000000E-01   2.50000000E+01
   5.75000000E+01   5.00000000E-01   5.00000000E-01   2.50000000E+01
   5.85000000E+01   5.00000000E-01   5.00000000E-01   2.50000000E+01
   5.95000000E+01   5.00000000E-01   5.00000000E-01   2.50000000E+01
   6.05000000E+01   5.00000000E-01   5.00000000E-01   2.50000000E+01
   6.15000000E+01   5.00000000E-01   5.00000000E-01   2.50000000E+01
   6.25000000E+01   5.00000000E-01   5.00000000E-01   2.50000000E+01
   6.35000000E+01   5.00000000E-01   5.00000000E-01   2.50000000E+01
   6.45000000E+01   5.00000000E-01   5.00000000E-01   2.50000000E+01
   6.55000000E+01   5.00000000E-01   5.00000000E-01   2.50000000E+01
   6.65000000E+01   5.00000000E-01   5.00000000E-01   2.50000000E+01
   6.75000000E+01   5.00000000E-01   5.00000000E-01   2.50000000E+01
   6.85000000E+01   5.00000000E-01   5.00000000E-01   2.50000000E+01
   6.95000000E+01   5.00000000E-01   5.00000000E-01   2.50000000E+01
   7.05000000E+01   5.00000000E-01   5.00000000E-01   2.50000000E+01
   7.15000000E+01   5.00000000E-01   5.00000000E-01   2.50000000E+01
   7.25000000E+01   5.00000000E-01   5.00000000E-01   2.50000000E+01
   7.35000000E+01   5.00000000E-01   5.00000000E-01   2.50000000E+01
   7.45000000E+01   5.00000000E-01   5.00000000E-01   2.50000000E+01
   7.55000000E+01   5.00000000E-01   5.00000000E-01   2.50000000E+01
   7.65000000E+01   5.00000000E-01   5.00000000E-01   2.50000000E+01
   7.75000000E+01   5.00000000E-01   5.00000000E-01   2.50000000E+01
   7.85000000E+01   5.00000000E-01   5.00000000E-01   2.50000000E+01
   7.95000000E+01   5.00000000E-01   5.00000000E-01   2.50000000E+01
   8.05000000E+01   5.00000000E-01   5.00000000E-01   2.50000000E+01
   8.15000000E+01   5.00000000E-01   5.00000000E-01   2.50000000E+01
   8.25000000E+01   5.00000000E-01   5.00000000E-01   2.50000000E+01
   8.35000000E+01   5.00000000E-01   5.00000000E-01   2.50000000E+01
   8.45000000E+01   5.00000000E-01   5.00000000E-01   2.50000000E+01
   8.55000000E+01   5.00000000E-01   5.00000000E-01   2.50000000E+01
   8.65000000E+01   5.00000000E-01   5.00000000E-01   2.50000000E+01
   8.75000000E+01   5.00000000E-01   5.00000000E-01   2.50000000E+01
   8.85000000E+01   5.00000000E-01   5.00000000E-01   2.50000000E+01
   8.95000000E+01   5.00000000E-01   5.00000000E-01   2.50000000E+01
   9.05000000E+01   5.00000000E-01   5.00000000E-01   2.50000000E+01
   9.15000000E+01   5.00000000E-01   5.00000000E-01   2.50000000E+01
   9.25000000E+01   5.00000000E-01   5.00000000E-01   2.50000000E+01
   9.35000000E+01   5.00000000E-01   5.00000000E-01   2.50000000E+01
   9.45000000E+01   5.00000000E-01   5.00000000E-01   2.50000000E+01
   9.55000000E+01   5.00000000E-01   5.00000000E-01   2.50000000E+01
   9.65000000E+01   5.00000000E-01   5.00000000E-01   2.50000000E+01
   9.75000000E+01   5.00000000E-01   5.00000000E-01   2.50000000E+01
   9.85000000E+01   5.00000000E-01   5.00000000E-01   2.50000000E+01
   9.95000000E+01   5.00000000E-01   5.00000000E-01   2.50000000E+01
